# vtk DataFile Version 3.0
vtk output
ASCII
DATASET POLYDATA
POINTS 62360 float
43.2609 100.824 104.015 43.3491 100.8 103.975 43.5181 100.824 103.931 
43.6063 100.8 103.891 43.7754 100.824 103.847 43.8636 100.8 103.807 
44.0326 100.824 103.763 44.1208 100.8 103.723 44.2899 100.824 103.68 
44.3781 100.8 103.639 44.5471 100.824 103.596 44.6354 100.8 103.555 
44.7843 100.821 103.517 44.8725 100.797 103.477 44.9684 100.811 103.452 
45.0566 100.786 103.412 45.1525 100.8 103.387 45.5605 100.688 103.2 
45.5996 100.671 103.187 46.9545 98.401 101.438 47.3438 96.0009 100.911 
47.9991 94.8808 101.073 50.3991 93.8212 101.178 50.9918 93.6003 101.136 
52.799 92.9769 101.167 55.199 92.3181 101.032 57.599 91.804 100.932 
59.999 91.5157 100.884 62.399 91.5601 100.817 63.9837 91.9139 100.8 
64.7997 92.4711 100.554 65.1991 93.5991 100.574 66.107 95.9991 100.249 
66.8079 98.3991 99.5978 67.174 100.799 98.7683 67.1759 101.842 98.4003 
67.1998 103.165 98.0352 67.2052 103.199 98.0331 67.2178 103.437 98.0206 
67.2 103.533 97.9995 67.2178 103.868 97.9818 67.2 103.964 97.9607 
67.2178 104.3 97.943 67.2 104.396 97.922 67.2641 105.599 97.8585 
67.2003 106.652 97.7823 66.7394 107.999 97.4955 66 109.2 97.2 
65.2606 110.401 96.9045 64.7993 110.794 96.7683 62.7816 112.253 95.9997 
62.3992 112.489 95.8335 61.8846 112.8 95.5944 59.9992 113.641 94.7832 
57.5991 114.614 93.8008 56.9434 114.852 93.5997 55.9922 115.2 93.1469 
55.1991 115.543 92.9749 52.7991 116.362 93.0875 50.3991 117.243 93.2143 
49.4144 117.6 93.1191 47.9991 118.446 92.9638 46.3641 119.863 91.1994 
46.2791 120.001 91.1127 46.1633 120.335 91.2002 47.6995 120.685 93.6008 
105.601 108.028 99.3425 104.611 108.001 99.9149 104.4 106.8 99.6 
104.189 105.599 99.2851 103.812 103.199 98.7449 103.613 101.335 98.3998 
103.527 101.313 98.4455 103.501 101.066 98.3998 103.414 101.045 98.4455 
103.388 100.799 98.4001 103.388 100.797 98.3999 103.307 100.759 98.4441 
103.273 100.422 98.3999 103.192 100.383 98.4441 103.129 99.9628 98.3999 
103.049 99.929 98.4491 102.98 99.4611 98.3999 102.899 99.4273 98.4491 
102.83 98.9594 98.3999 102.75 98.9256 98.4491 102.68 98.4577 98.3999 
102.6 98.4238 98.4491 102.596 98.399 98.4464 102.5 97.9081 98.3999 
102.427 97.8529 98.4394 102.345 97.4359 98.3999 102.272 97.3807 98.4394 
102.19 96.9638 98.3999 102.117 96.9086 98.4394 102.035 96.4916 98.3999 
101.962 96.4364 98.4394 101.88 96.0195 98.3999 101.807 95.9643 98.4394 
101.727 95.6182 98.3999 101.676 95.5338 98.4174 101.64 95.3807 98.3999 
101.59 95.2963 98.4174 101.554 95.1431 98.3999 101.503 95.0588 98.4174 
101.468 94.9056 98.3999 101.417 94.8213 98.4174 101.381 94.6681 98.3999 
101.331 94.5837 98.4174 101.295 94.4306 98.3999 101.244 94.3462 98.4174 
101.209 94.193 98.3999 101.158 94.1087 98.4174 101.122 93.9555 98.3999 
101.072 93.8712 98.4174 101.036 93.718 98.3999 100.985 93.6336 98.4174 
100.977 93.599 98.4134 100.953 93.4878 98.3999 100.8 92.262 98.2885 
100.656 92.1066 98.4005 100.408 91.199 98.4314 100.051 89.705 98.4 
99.9999 89.6292 98.4405 99.8016 88.799 98.423 99.7531 88.6128 98.3999 
99.7034 88.531 98.4287 99.6432 88.2997 98.3999 99.5935 88.2178 98.4287 
99.5333 87.9865 98.3999 99.4836 87.9047 98.4287 99.4234 87.6734 98.3999 
99.3736 87.5916 98.4287 99.3135 87.3603 98.3999 99.2637 87.2784 98.4287 
99.2036 87.0471 98.3999 99.1538 86.9653 98.4287 99.0937 86.734 98.3999 
99.0439 86.6522 98.4287 98.9837 86.4208 98.3999 98.934 86.339 98.4287 
98.8922 86.2166 98.3998 98.3996 85.1346 98.2648 98.2324 85.0078 98.4006 
97.443 83.9993 98.8556 95.9994 82.0926 99.4697 95.396 81.5995 99.9567 
94.6356 80.7767 100.801 94.3135 79.1992 101.929 94.2899 77.2447 103.201 
94.4117 76.7992 103.478 95.3247 74.3992 104.972 95.7887 73.403 105.601 
96.0005 73.0744 105.874 96.5733 71.9992 106.494 97.8223 69.5992 107.709 
98.1667 69.0986 108 98.4005 68.7779 108.286 99.2772 67.1992 109.135 
100.673 65.5801 110.401 100.8 65.4123 110.591 101.981 64.7997 112.279 
102.238 64.5671 112.801 103.2 64.0084 115.064 103.354 64.0226 115.201 
105.601 63.7331 116.249 108.001 63.3524 116.418 110.401 63.078 116.225 
112.801 62.5212 115.614 112.848 62.3992 115.541 113.21 61.8245 115.2 
114.688 59.9993 114.478 115.201 59.7013 114.423 115.191 59.6018 114.421 
115.277 59.5518 114.412 115.2 58.8085 114.401 115.286 58.7584 114.391 
115.2 57.9251 114.378 115.286 57.875 114.369 115.257 57.599 114.365 
43.7105 79.6371 108.001 44.3074 79.2007 107.546 45.5992 77.6001 106.298 
46.603 77.9431 105.6 47.9991 78.4911 105.111 50.2489 79.1998 105.373 
50.399 79.2289 105.385 52.7991 79.6683 104.859 55.1992 79.6132 103.972 
56.4393 79.4856 103.2 57.5991 79.3473 102.618 59.9991 79.2318 101.263 
61.0018 79.5233 100.8 62.3992 80.0847 100.157 64.7991 81.3994 99.5094 
65.1456 81.5993 99.4681 67.1995 83.9735 99.6741 67.2148 83.9991 99.6814 
67.9708 86.3991 100.532 68.1367 87.1944 100.8 68.1344 88.7991 101.452 
67.7421 91.199 102.257 67.297 93.599 102.749 67.2001 94.8173 102.815 
67.1291 95.999 102.695 67.1836 98.3991 102.006 67.1781 100.776 101.111 
67.2001 100.872 101.095 67.1781 101.077 101.014 67.2001 101.173 100.997 
67.1781 101.377 100.916 67.2001 101.474 100.9 67.1781 101.678 100.818 
67.2001 101.775 100.802 67.1996 101.779 100.8 67.1999 101.935 100.745 
67.3034 103.199 100.601 67.3741 105.599 100.356 67.2003 107.142 100.222 
66.8943 107.999 99.9736 66 109.2 99.6 65.1057 110.401 99.2264 
64.7992 110.629 99.1415 62.5312 112.02 98.3997 62.3992 112.115 98.3495 
61.194 112.8 97.8796 59.9991 113.317 97.5039 57.5991 114.137 96.969 
55.199 114.849 96.9312 54.209 115.2 97.0685 52.7991 115.706 97.4107 
50.399 116.088 97.6654 47.9991 115.705 96.7904 45.599 115.482 96.219 
43.7258 117.267 95.9999 43.564 117.601 95.9697 43.4691 117.575 95.9877 
43.4256 117.665 95.9796 43.3168 117.635 96.0002 106.969 103.199 141.752 
105.813 105.599 141.769 105.726 105.775 141.601 105.6 105.987 141.371 
104.515 107.999 139.788 104.351 108.356 139.201 103.572 109.259 136.801 
103.2 109.52 135.682 102.767 109.78 134.401 101.915 110.2 132.001 
100.928 110.388 129.633 100.871 110.401 129.552 100.817 110.4 129.468 
100.8 110.404 129.444 100.791 110.4 129.402 100.462 109.922 127.201 
99.6854 109.288 124.801 98.6479 108.714 122.401 98.4004 108.655 121.893 
97.5942 108.745 120.001 96.4382 109.272 117.601 96.0004 109.749 116.741 
95.2052 110.33 115.201 95.1417 110.4 115.065 94.4325 111.135 112.801 
94.0811 112.012 110.401 94.462 112.507 108.001 95.2066 112.8 106.521 
95.752 112.949 105.601 95.9994 112.999 105.292 97.7318 113.17 103.201 
98.3993 113.264 102.539 100.365 113.298 100.801 100.799 113.351 100.488 
103.199 113.52 99.0097 104.481 113.569 98.4004 105.599 113.665 97.9092 
107.999 113.77 97.0637 110.399 113.745 96.4496 112.799 113.469 96.2834 
115.199 113.091 96.5321 117.313 112.8 97.0525 117.599 112.755 97.1229 
119.999 112.411 97.9814 120.882 112.285 98.3995 122.399 111.966 99.2368 
124.618 111.462 100.799 124.799 111.352 100.984 126.617 110.702 103.199 
127.2 110.636 104.378 127.72 110.4 105.252 127.938 110.293 105.599 
128.527 110.099 107.999 128.367 110.179 110.399 127.796 110.039 112.799 
127.201 109.64 114.672 126.887 109.794 115.199 126.313 108.319 117.599 
126.084 108 118.39 125.536 107.346 119.999 124.8 106.928 121.763 
124.467 106.748 122.399 123.19 106.389 124.799 122.401 106.197 126.281 
121.804 106.248 127.199 120.235 105.638 129.599 120.184 105.6 129.662 
120.001 105.436 129.902 118.05 103.282 131.999 117.985 103.201 132.07 
117.601 102.8 132.422 115.201 100.877 134.08 114.849 100.801 134.236 
114.417 99.1637 134.399 113.57 98.4009 135.234 113.078 96.001 136.21 
112.806 93.6259 135.698 112.797 93.5672 135.618 112.808 93.4883 135.557 
112.798 93.4295 135.477 112.81 93.3507 135.417 112.8 93.2919 135.336 
112.976 92.0707 134.401 113.158 91.2009 133.682 113.804 88.8009 132.471 
113.896 87.667 132 113.971 86.4008 131.654 114.126 84.0008 129.964 
114.223 83.4127 129.6 114.382 81.6009 128.603 114.409 79.2007 127.387 
114.446 79.0352 127.201 115.199 77.1458 124.968 115.347 77.0322 124.801 
115.599 76.8007 124.512 117.432 74.4004 123.025 117.599 74.3045 122.855 
118.023 74.0998 122.4 119.999 72.5972 121.243 122.399 72.0393 121.154 
124.799 72.6314 120.785 125.948 73.2465 120.001 127.199 73.8757 118.951 
128.112 74.3995 118.097 128.602 74.7672 117.601 129.599 75.6814 116.537 
130.541 76.7993 115.527 130.828 77.2014 115.201 132 79.0265 113.888 
132.088 79.1992 113.765 132.654 80.4864 112.801 133.025 81.5993 112.105 
133.706 83.6707 110.401 133.773 83.9993 110.174 134.152 86.097 108.001 
134.13 86.3993 107.784 133.812 88.7993 105.707 133.796 88.893 105.601 
132.769 91.1993 103.565 132.588 91.5521 103.201 132 92.211 102.497 
131.269 93.5992 101.972 129.804 95.9994 100.963 129.6 96.2102 100.813 
129.548 96.3522 100.831 129.481 96.4192 100.8 129.39 96.6656 100.831 
129.322 96.7326 100.8 129.232 96.979 100.831 129.164 97.046 100.8 
129.073 97.2924 100.831 129.006 97.3595 100.8 128.915 97.6058 100.831 
128.848 97.6729 100.8 128.757 97.9192 100.831 128.689 97.9863 100.8 
128.543 98.3851 100.85 128.47 98.4332 100.8 128.136 98.9577 100.85 
128.064 99.0059 100.8 127.729 99.5303 100.85 127.657 99.5785 100.8 
127.373 100.025 100.842 127.3 100.073 100.793 127.247 100.157 100.8 
127.2 100.188 100.769 126.927 100.683 100.8 126.892 100.799 100.84 
126.888 100.807 100.843 126.816 100.861 100.8 126.764 100.981 100.843 
126.692 101.035 100.8 126.64 101.155 100.843 126.568 101.209 100.8 
126.516 101.329 100.843 126.443 101.383 100.8 126.392 101.503 100.843 
126.319 101.557 100.8 126.268 101.677 100.843 126.195 101.73 100.8 
126.144 101.851 100.843 126.071 101.904 100.8 126.019 102.025 100.843 
125.947 102.078 100.8 125.895 102.199 100.843 125.823 102.252 100.8 
125.771 102.373 100.843 125.699 102.426 100.8 125.647 102.547 100.843 
125.575 102.6 100.8 125.523 102.721 100.843 125.45 102.774 100.8 
125.399 102.895 100.843 125.326 102.948 100.8 125.275 103.068 100.843 
[...]
POINT_DATA 62360
COLOR_SCALARS RGB_scalars 3				
217 	217 	217 					
29 	29 	29 					
212 	212 	212 					
139 	139 	139 					
146 	146 	146 					
154 	154 	154 					
26 	26 	26 					
203 	203 	203 					
137 	137 	137 					
180 	180 	180 					
17 	17 	17 					
200 	200 	200 					
55 	55 	55 					
179 	179 	179 					
232 	232 	232 					
99 	99 	99 					
235 	235 	235 					
132 	132 	132 					
8 	8 	8 					
205 	205 	205 					
73 	73 	73 					
208 	208 	208 					
204 	204 	204 					
195 	195 	195 					
198 	198 	198 					
242 	242 	242 					
54 	54 	54 					
252 	252 	252 					
179 	179 	179 					
119 	119 	119 					
133 	133 	133 					
73 	73 	73 					
17 	17 	17 					
167 	167 	167 					
165 	165 	165 					
96 	96 	96 					
67 	67 	67 					
161 	161 	161 					
86 	86 	86 					
184 	184 	184 					
53 	53 	53 					
103 	103 	103 					
46 	46 	46 					
167 	167 	167 					
89 	89 	89 					
166 	166 	166 					
253 	253 	253 					
87 	87 	87 					
191 	191 	191 					
96 	96 	96 					
91 	91 	91 					
38 	38 	38 					
171 	171 	171 					
112 	112 	112 					
136 	136 	136 					
95 	95 	95 					
71 	71 	71 					
223 	223 	223 					
149 	149 	149 					
44 	44 	44 					
195 	195 	195 					
20 	20 	20 					
43 	43 	43 					
31 	31 	31 					
218 	218 	218 					
228 	228 	228 					
132 	132 	132 					
239 	239 	239 					
187 	187 	187 					
52 	52 	52 					
209 	209 	209 					
207 	207 	207 					
148 	148 	148 					
0 	0 	0 					
107 	107 	107 					
174 	174 	174 					
22 	22 	22 					
15 	15 	15 					
204 	204 	204 					
122 	122 	122 					
176 	176 	176 					
220 	220 	220 					
239 	239 	239 					
102 	102 	102 					
184 	184 	184 					
76 	76 	76 					
205 	205 	205 					
189 	189 	189 					
217 	217 	217 					
196 	196 	196 					
244 	244 	244 					
0 	0 	0 					
56 	56 	56 					
176 	176 	176 					
148 	148 	148 					
211 	211 	211 					
67 	67 	67 					
33 	33 	33 					
117 	117 	117 					
51 	51 	51 					
59 	59 	59 					
209 	209 	209 					
57 	57 	57 					
133 	133 	133 					
124 	124 	124 					
164 	164 	164 					
104 	104 	104 					
38 	38 	38 					
249 	249 	249 					
19 	19 	19 					
90 	90 	90 					
236 	236 	236 					
33 	33 	33 					
155 	155 	155 					
79 	79 	79 					
213 	213 	213 					
70 	70 	70 					
27 	27 	27 					
123 	123 	123 					
234 	234 	234 					
10 	10 	10 					
162 	162 	162 					
251 	251 	251 					
101 	101 	101 					
221 	221 	221 					
151 	151 	151 					
34 	34 	34 					
25 	25 	25 					
89 	89 	89 					
201 	201 	201 					
171 	171 	171 					
158 	158 	158 					
140 	140 	140 					
241 	241 	241 					
1 	1 	1 					
46 	46 	46 					
221 	221 	221 					
0 	0 	0 					
223 	223 	223 					
250 	250 	250 					
182 	182 	182 					
63 	63 	63 					
166 	166 	166 					
133 	133 	133 					
236 	236 	236 					
50 	50 	50 					
204 	204 	204 					
188 	188 	188 					
147 	147 	147 					
145 	145 	145 					
9 	9 	9 					
180 	180 	180 					
109 	109 	109 					
245 	245 	245 					
57 	57 	57 					
245 	245 	245 					
193 	193 	193 					
210 	210 	210 					
90 	90 	90 					
107 	107 	107 					
90 	90 	90 					
195 	195 	195 					
0 	0 	0 					
72 	72 	72 					
158 	158 	158 					
202 	202 	202 					
142 	142 	142 					
41 	41 	41 					
219 	219 	219 					
62 	62 	62 					
49 	49 	49 					
21 	21 	21 					
180 	180 	180 					
63 	63 	63 					
65 	65 	65 					
146 	146 	146 					
56 	56 	56 					
170 	170 	170 					
85 	85 	85 					
212 	212 	212 					
165 	165 	165 					
104 	104 	104 					
34 	34 	34 					
31 	31 	31 					
212 	212 	212 					
126 	126 	126 					
106 	106 	106 					
96 	96 	96 					
106 	106 	106 					
104 	104 	104 					
236 	236 	236 					
42 	42 	42 					
40 	40 	40 					
89 	89 	89 					
112 	112 	112 					
173 	173 	173 					
210 	210 	210 					
241 	241 	241 					
48 	48 	48 					
82 	82 	82 					
249 	249 	249 					
115 	115 	115 					
120 	120 	120 					
171 	171 	171 					
41 	41 	41 					
153 	153 	153 					
100 	100 	100 					
26 	26 	26 					
84 	84 	84 					
51 	51 	51 					
53 	53 	53 					
29 	29 	29 					
121 	121 	121 					
18 	18 	18 					
50 	50 	50 					
252 	252 	252 					
129 	129 	129 					
111 	111 	111 					
68 	68 	68 					
134 	134 	134 					
161 	161 	161 					
65 	65 	65 					
107 	107 	107 					
115 	115 	115 					
119 	119 	119 					
130 	130 	130 					
56 	56 	56 					
121 	121 	121 					
16 	16 	16 					
135 	135 	135 					
34 	34 	34 					
54 	54 	54 					
127 	127 	127 					
200 	200 	200 					
57 	57 	57 					
213 	213 	213 					
126 	126 	126 					
32 	32 	32 					
185 	185 	185 					
6 	6 	6 					
202 	202 	202 					
50 	50 	50 					
49 	49 	49 					
98 	98 	98 					
251 	251 	251 					
195 	195 	195 					
78 	78 	78 					
94 	94 	94 					
225 	225 	225 					
217 	217 	217 					
50 	50 	50 					
207 	207 	207 					
115 	115 	115 					
130 	130 	130 					
119 	119 	119 					
161 	161 	161 					
77 	77 	77 					
56 	56 	56 					
13 	13 	13 					
177 	177 	177 					
193 	193 	193 					
3 	3 	3 					
82 	82 	82 					
88 	88 	88 					
20 	20 	20 					
170 	170 	170 					
148 	148 	148 					
35 	35 	35 					
114 	114 	114 					
77 	77 	77 					
35 	35 	35 					
136 	136 	136 					
109 	109 	109 					
84 	84 	84 					
191 	191 	191 					
35 	35 	35 					
62 	62 	62 					
41 	41 	41 					
211 	211 	211 					
189 	189 	189 					
59 	59 	59 					
152 	152 	152 					
249 	249 	249 					
33 	33 	33 					
171 	171 	171 					
93 	93 	93 					
66 	66 	66 					
63 	63 	63 					
22 	22 	22 					
92 	92 	92 					
77 	77 	77 					
226 	226 	226 					
82 	82 	82 					
16 	16 	16 					
250 	250 	250 					
40 	40 	40 					
22 	22 	22 					
42 	42 	42 					
134 	134 	134 					
169 	169 	169 					
231 	231 	231 					
120 	120 	120 					
49 	49 	49 					
146 	146 	146 					
245 	245 	245 					
119 	119 	119 					
190 	190 	190 					
14 	14 	14 					
220 	220 	220 					
6 	6 	6 					
79 	79 	79 					
251 	251 	251 					
224 	224 	224 					
198 	198 	198 					
184 	184 	184 					
106 	106 	106 					
14 	14 	14 					
229 	229 	229 					
41 	41 	41 					
83 	83 	83 					
185 	185 	185 					
59 	59 	59 					
201 	201 	201 					
53 	53 	53 					
140 	140 	140 					
141 	141 	141 					
112 	112 	112 					
141 	141 	141 					
88 	88 	88 					
77 	77 	77 					
81 	81 	81 					
227 	227 	227 					
107 	107 	107 					
108 	108 	108 					
0 	0 	0 					
252 	252 	252 					
19 	19 	19 					
37 	37 	37 					
3 	3 	3 					
201 	201 	201 					
52 	52 	52 					
74 	74 	74 					
227 	227 	227 					
93 	93 	93 					
27 	27 	27 					
25 	25 	25 					
40 	40 	40 					
197 	197 	197 					
91 	91 	91 					
137 	137 	137 					
55 	55 	55 					
204 	204 	204 					
5 	5 	5 					
19 	19 	19 					
1 	1 	1 					
126 	126 	126 					
68 	68 	68 					
181 	181 	181 					
100 	100 	100 					
10 	10 	10 					
108 	108 	108 					
51 	51 	51 					
160 	160 	160 					
236 	236 	236 					
56 	56 	56 					
140 	140 	140 					
249 	249 	249 					
28 	28 	28 					
220 	220 	220 					
108 	108 	108 					
36 	36 	36 					
236 	236 	236 					
131 	131 	131 					
47 	47 	47 					
183 	183 	183 					
165 	165 	165 					
213 	213 	213 					
51 	51 	51 					
32 	32 	32 					
93 	93 	93 					
194 	194 	194 					
95 	95 	95 					
67 	67 	67 					
185 	185 	185 					
146 	146 	146 					
206 	206 	206 					
219 	219 	219 					
176 	176 	176 					
171 	171 	171 					
121 	121 	121 					
125 	125 	125 					
182 	182 	182 					
4 	4 	4 					
184 	184 	184 					
119 	119 	119 					
57 	57 	57 					
11 	11 	11 					
110 	110 	110 					
181 	181 	181 					
85 	85 	85 					
137 	137 	137 					
243 	243 	243 					
174 	174 	174 					
29 	29 	29 					
20 	20 	20 					
223 	223 	223 					
155 	155 	155 					
88 	88 	88 					
230 	230 	230 					
18 	18 	18 					
73 	73 	73 					
94 	94 	94 					
148 	148 	148 					
242 	242 	242 					
43 	43 	43 					
39 	39 	39 					
124 	124 	124 					
1 	1 	1 					
27 	27 	27 					
26 	26 	26 					
121 	121 	121 					
74 	74 	74 					
147 	147 	147 					
56 	56 	56 					
218 	218 	218 					
111 	111 	111 					
186 	186 	186 					
61 	61 	61 					
101 	101 	101 					
123 	123 	123 					
66 	66 	66 					
98 	98 	98 					
117 	117 	117 					
163 	163 	163 					
214 	214 	214 					
155 	155 	155 					
87 	87 	87 					
204 	204 	204 					
210 	210 	210 					
34 	34 	34 					
12 	12 	12 					
5 	5 	5 					
65 	65 	65 					
34 	34 	34 					
251 	251 	251 					
20 	20 	20 					
89 	89 	89 					
97 	97 	97 					
227 	227 	227 					
106 	106 	106 					
165 	165 	165 					
149 	149 	149 					
95 	95 	95 					
162 	162 	162 					
113 	113 	113 					
255 	255 	255 					
243 	243 	243 					
110 	110 	110 					
20 	20 	20 					
183 	183 	183 					
97 	97 	97 					
197 	197 	197 					
205 	205 	205 					
195 	195 	195 					
107 	107 	107 					
192 	192 	192 					
165 	165 	165 					
72 	72 	72 					
11 	11 	11 					
167 	167 	167 					
114 	114 	114 					
60 	60 	60 					
48 	48 	48 					
52 	52 	52 					
119 	119 	119 					
14 	14 	14 					
103 	103 	103 					
90 	90 	90 					
157 	157 	157 					
136 	136 	136 					
207 	207 	207 					
208 	208 	208 					
36 	36 	36 					
158 	158 	158 					
115 	115 	115 					
225 	225 	225 					
179 	179 	179 					
226 	226 	226 					
184 	184 	184 					
67 	67 	67 					
29 	29 	29 					
208 	208 	208 					
61 	61 	61 					
61 	61 	61 					
200 	200 	200 					
202 	202 	202 					
240 	240 	240 					
138 	138 	138 					
37 	37 	37 					
188 	188 	188 					
199 	199 	199 					
216 	216 	216 					
88 	88 	88 					
183 	183 	183 					
204 	204 	204 					
138 	138 	138 					
230 	230 	230 					
87 	87 	87 					
97 	97 	97 					
63 	63 	63 					
39 	39 	39 					
79 	79 	79 					
183 	183 	183 					
84 	84 	84 					
94 	94 	94 					
224 	224 	224 					
0 	0 	0 					
135 	135 	135 					
242 	242 	242 					
211 	211 	211 					
128 	128 	128 					
241 	241 	241 					
87 	87 	87 					
47 	47 	47 					
7 	7 	7 					
2 	2 	2 					
227 	227 	227 					
251 	251 	251 					
149 	149 	149 					
123 	123 	123 					
78 	78 	78 					
183 	183 	183 					
224 	224 	224 					
212 	212 	212 					
172 	172 	172 					
161 	161 	161 					
102 	102 	102 					
101 	101 	101 					
35 	35 	35 					
192 	192 	192 					
189 	189 	189 					
30 	30 	30 					
166 	166 	166 					
85 	85 	85 					
71 	71 	71 					
124 	124 	124 					
250 	250 	250 					
170 	170 	170 					
122 	122 	122 					
245 	245 	245 					
158 	158 	158 					
65 	65 	65 					
99 	99 	99 					
228 	228 	228 					
21 	21 	21 					
50 	50 	50 					
210 	210 	210 					
176 	176 	176 					
50 	50 	50 					
152 	152 	152 					
198 	198 	198 					
109 	109 	109 					
24 	24 	24 					
143 	143 	143 					
67 	67 	67 					
207 	207 	207 					
111 	111 	111 					
227 	227 	227 					
112 	112 	112 					
80 	80 	80 					
6 	6 	6 					
137 	137 	137 					
109 	109 	109 					
14 	14 	14 					
3 	3 	3 					
253 	253 	253 					
116 	116 	116 					
179 	179 	179 					
142 	142 	142 					
7 	7 	7 					
30 	30 	30 					
224 	224 	224 					
155 	155 	155 					
123 	123 	123 					
221 	221 	221 					
248 	248 	248 					
104 	104 	104 					
246 	246 	246 					
180 	180 	180 					
139 	139 	139 					
216 	216 	216 					
141 	141 	141 					
196 	196 	196 					
156 	156 	156 					
156 	156 	156 					
56 	56 	56 					
39 	39 	39 					
134 	134 	134 					
123 	123 	123 					
51 	51 	51 					
124 	124 	124 					
223 	223 	223 					
147 	147 	147 					
192 	192 	192 					
236 	236 	236 					
49 	49 	49 					
58 	58 	58 					
108 	108 	108 					
153 	153 	153 					
52 	52 	52 					
174 	174 	174 					
116 	116 	116 					
253 	253 	253 					
67 	67 	67 					
187 	187 	187 					
134 	134 	134 					
70 	70 	70 					
218 	218 	218 					
122 	122 	122 					
62 	62 	62 					
221 	221 	221 					
127 	127 	127 					
188 	188 	188 					
6 	6 	6 					
64 	64 	64 					
200 	200 	200 					
87 	87 	87 					
44 	44 	44 					
239 	239 	239 					
151 	151 	151 					
73 	73 	73 					
100 	100 	100 					
61 	61 	61 					
98 	98 	98 					
182 	182 	182 					
7 	7 	7 					
250 	250 	250 					
53 	53 	53 					
119 	119 	119 					
85 	85 	85 					
82 	82 	82 					
69 	69 	69 					
170 	170 	170 					
144 	144 	144 					
130 	130 	130 					
141 	141 	141 					
194 	194 	194 					
200 	200 	200 					
33 	33 	33 					
244 	244 	244 					
236 	236 	236 					
238 	238 	238 					
46 	46 	46 					
213 	213 	213 					
137 	137 	137 					
239 	239 	239 					
239 	239 	239 					
64 	64 	64 					
148 	148 	148 					
178 	178 	178 					
34 	34 	34 					
233 	233 	233 					
214 	214 	214 					
218 	218 	218 					
166 	166 	166 					
243 	243 	243 					
196 	196 	196 					
224 	224 	224 					
23 	23 	23 					
41 	41 	41 					
131 	131 	131 					
45 	45 	45 					
230 	230 	230 					
187 	187 	187 					
93 	93 	93 					
180 	180 	180 					
54 	54 	54 					
164 	164 	164 					
5 	5 	5 					
166 	166 	166 					
199 	199 	199 					
66 	66 	66 					
167 	167 	167 					
85 	85 	85 					
33 	33 	33 					
157 	157 	157 					
3 	3 	3 					
167 	167 	167 					
246 	246 	246 					
93 	93 	93 					
168 	168 	168 					
120 	120 	120 					
212 	212 	212 					
243 	243 	243 					
102 	102 	102 					
154 	154 	154 					
77 	77 	77 					
77 	77 	77 					
132 	132 	132 					
157 	157 	157 					
200 	200 	200 					
22 	22 	22 					
248 	248 	248 					
253 	253 	253 					
70 	70 	70 					
97 	97 	97 					
119 	119 	119 					
98 	98 	98 					
30 	30 	30 					
219 	219 	219 					
253 	253 	253 					
199 	199 	199 					
255 	255 	255 					
159 	159 	159 					
225 	225 	225 					
50 	50 	50 					
52 	52 	52 					
85 	85 	85 					
121 	121 	121 					
48 	48 	48 					
98 	98 	98 					
58 	58 	58 					
186 	186 	186 					
250 	250 	250 					
242 	242 	242 					
149 	149 	149 					
85 	85 	85 					
189 	189 	189 					
217 	217 	217 					
55 	55 	55 					
12 	12 	12 					
63 	63 	63 					
59 	59 	59 					
33 	33 	33 					
219 	219 	219 					
70 	70 	70 					
142 	142 	142 					
249 	249 	249 					
122 	122 	122 					
255 	255 	255 					
107 	107 	107 					
101 	101 	101 					
150 	150 	150 					
121 	121 	121 					
12 	12 	12 					
179 	179 	179 					
110 	110 	110 					
24 	24 	24 					
155 	155 	155 					
17 	17 	17 					
35 	35 	35 					
69 	69 	69 					
218 	218 	218 					
221 	221 	221 					
77 	77 	77 					
122 	122 	122 					
10 	10 	10 					
65 	65 	65 					
104 	104 	104 					
7 	7 	7 					
208 	208 	208 					
126 	126 	126 					
250 	250 	250 					
122 	122 	122 					
163 	163 	163 					
230 	230 	230 					
16 	16 	16 					
166 	166 	166 					
86 	86 	86 					
211 	211 	211 					
76 	76 	76 					
252 	252 	252 					
6 	6 	6 					
171 	171 	171 					
34 	34 	34 					
145 	145 	145 					
243 	243 	243 					
18 	18 	18 					
188 	188 	188 					
35 	35 	35 					
187 	187 	187 					
145 	145 	145 					
127 	127 	127 					
251 	251 	251 					
102 	102 	102 					
146 	146 	146 					
21 	21 	21 					
180 	180 	180 					
20 	20 	20 					
63 	63 	63 					
106 	106 	106 					
215 	215 	215 					
50 	50 	50 					
232 	232 	232 					
53 	53 	53 					
56 	56 	56 					
247 	247 	247 					
210 	210 	210 					
16 	16 	16 					
172 	172 	172 					
15 	15 	15 					
155 	155 	155 					
116 	116 	116 					
78 	78 	78 					
206 	206 	206 					
68 	68 	68 					
223 	223 	223 					
130 	130 	130 					
179 	179 	179 					
86 	86 	86 					
81 	81 	81 					
99 	99 	99 					
104 	104 	104 					
161 	161 	161 					
157 	157 	157 					
37 	37 	37 					
62 	62 	62 					
188 	188 	188 					
144 	144 	144 					
222 	222 	222 					
96 	96 	96 					
205 	205 	205 					
38 	38 	38 					
78 	78 	78 					
197 	197 	197 					
236 	236 	236 					
0 	0 	0 					
253 	253 	253 					
245 	245 	245 					
130 	130 	130 					
207 	207 	207 					
24 	24 	24 					
124 	124 	124 					
237 	237 	237 					
34 	34 	34 					
117 	117 	117 					
72 	72 	72 					
20 	20 	20 					
165 	165 	165 					
48 	48 	48 					
192 	192 	192 					
108 	108 	108 					
62 	62 	62 					
23 	23 	23 					
48 	48 	48 					
128 	128 	128 					
161 	161 	161 					
113 	113 	113 					
105 	105 	105 					
164 	164 	164 					
171 	171 	171 					
114 	114 	114 					
136 	136 	136 					
106 	106 	106 					
52 	52 	52 					
3 	3 	3 					
35 	35 	35 					
82 	82 	82 					
173 	173 	173 					
187 	187 	187 					
117 	117 	117 					
52 	52 	52 					
48 	48 	48 					
234 	234 	234 					
161 	161 	161 					
30 	30 	30 					
200 	200 	200 					
86 	86 	86 					
16 	16 	16 					
20 	20 	20 					
21 	21 	21 					
133 	133 	133 					
39 	39 	39 					
152 	152 	152 					
113 	113 	113 					
143 	143 	143 					
57 	57 	57 					
80 	80 	80 					
78 	78 	78 					
17 	17 	17 					
11 	11 	11 					
189 	189 	189 					
247 	247 	247 					
47 	47 	47 					
190 	190 	190 					
242 	242 	242 					
92 	92 	92 					
207 	207 	207 					
25 	25 	25 					
176 	176 	176 					
191 	191 	191 					
154 	154 	154 					
113 	113 	113 					
229 	229 	229 					
48 	48 	48 					
99 	99 	99 					
115 	115 	115 					
59 	59 	59 					
145 	145 	145 					
214 	214 	214 					
100 	100 	100 					
2 	2 	2 					
117 	117 	117 					
202 	202 	202 					
84 	84 	84 					
184 	184 	184 					
224 	224 	224 					
164 	164 	164 					
122 	122 	122 					
28 	28 	28 					
99 	99 	99 					
205 	205 	205 					
240 	240 	240 					
179 	179 	179 					
32 	32 	32 					
130 	130 	130 					
33 	33 	33 					
99 	99 	99 					
59 	59 	59 					
62 	62 	62 					
245 	245 	245 					
250 	250 	250 					
205 	205 	205 					
110 	110 	110 					
176 	176 	176 					
81 	81 	81 					
24 	24 	24 					
231 	231 	231 					
65 	65 	65 					
105 	105 	105 					
247 	247 	247 					
2 	2 	2 					
253 	253 	253 					
2 	2 	2 					
223 	223 	223 					
152 	152 	152 					
34 	34 	34 					
163 	163 	163 					
205 	205 	205 					
46 	46 	46 					
241 	241 	241 					
91 	91 	91 					
135 	135 	135 					
93 	93 	93 					
197 	197 	197 					
144 	144 	144 					
63 	63 	63 					
115 	115 	115 					
236 	236 	236 					
190 	190 	190 					
217 	217 	217 					
195 	195 	195 					
72 	72 	72 					
251 	251 	251 					
177 	177 	177 					
204 	204 	204 					
102 	102 	102 					
75 	75 	75 					
182 	182 	182 					
157 	157 	157 					
49 	49 	49 					
175 	175 	175 					
181 	181 	181 					
165 	165 	165 					
153 	153 	153 					
60 	60 	60 					
237 	237 	237 					
189 	189 	189 					
132 	132 	132 					
60 	60 	60 					
237 	237 	237 					
234 	234 	234 					
216 	216 	216 					
189 	189 	189 					
84 	84 	84 					
250 	250 	250 					
175 	175 	175 					
15 	15 	15 					
145 	145 	145 					
111 	111 	111 					
148 	148 	148 					
194 	194 	194 					
236 	236 	236 					
129 	129 	129 					
218 	218 	218 					
160 	160 	160 					
161 	161 	161 					
13 	13 	13 					
61 	61 	61 					
137 	137 	137 					
185 	185 	185 					
102 	102 	102 					
234 	234 	234 					
112 	112 	112 					
86 	86 	86 					
55 	55 	55 					
210 	210 	210 					
38 	38 	38 					
46 	46 	46 					
183 	183 	183 					
230 	230 	230 					
250 	250 	250 					
29 	29 	29 					
227 	227 	227 					
146 	146 	146 					
15 	15 	15 					
63 	63 	63 					
136 	136 	136 					
68 	68 	68 					
199 	199 	199 					
236 	236 	236 					
1 	1 	1 					