# vtk DataFile Version 3.0
vtk output
ASCII
DATASET POLYDATA

POINTS 62360 float
43.2609 100.824 104.015 43.3491 100.8 103.975 43.5181 100.824 103.931 

LINES 61555 184665
2 0 1 
2 1 2 

POINT_DATA 62360
COLOR_SCALARS RGB_scalars 3
1 0 0 0 1 0 0 0 1 

